 Gaussian 09, Revision E.01,
 Gaussian 09:  EM64L-G09RevE.01 30-Nov-2015

 ---------------------------------------------------------
 #P HF/6-31G* SCF=Tight Pop=MK IOp(6/33=2,6/41=10,6/42=17)
 ---------------------------------------------------------

 -----
 Title
 -----
 Symbolic Z-matrix:
 Charge =  0 Multiplicity = 1

                         Standard orientation:
 ---------------------------------------------------------------------
 Center     Atomic      Atomic             Coordinates (Angstroms)
 Number     Number       Type             X           Y           Z
 ---------------------------------------------------------------------
      1          6           0       -0.710668    1.357239    0.000019
      2          1           0       -0.224968    1.782389    0.883519
      3          1           0       -1.765138    1.629849    0.000779
      4          1           0       -0.226348    1.782249   -0.884321
      5          6           0       -0.623808   -0.154661    0.000009
      6          8           0       -1.619739   -0.881021   -0.000011
      7          7           0        0.641051   -0.678842   -0.000001
      8          1           0        0.665271   -1.691062    0.000129
      9          6           0        1.889112    0.060048   -0.000001
     10          1           0        2.708651   -0.659652   -0.001371
     11          1           0        1.991992    0.691198   -0.888481
     12          1           0        1.993272    0.689328    0.889679
 ---------------------------------------------------------------------

 SCF Done:  E(RHF) =  -246.999372734     A.U. after   13 cycles

 The electronic state is 1-A.
 Alpha  occ. eigenvalues --  -20.51496 -15.58584 -11.34961 -11.27808 -11.23560
 Alpha  occ. eigenvalues --   -1.36199  -1.22379  -1.00497  -0.95429  -0.77935
 Alpha  occ. eigenvalues --   -0.67055  -0.66181  -0.63901  -0.58059  -0.57315
 Alpha  occ. eigenvalues --   -0.55877  -0.55329  -0.50690  -0.41138  -0.38090
 Alpha virt. eigenvalues --    0.20089   0.21328   0.23658   0.27016   0.29337
 Alpha virt. eigenvalues --    0.30926   0.32613   0.36457   0.39746   0.41922
 Alpha virt. eigenvalues --    0.49234   0.57952   0.68375   0.72631   0.73222

 Mulliken charges:
               1
     1  C   -0.595169
     2  H    0.187851
     3  H    0.219800
     4  H    0.187887
     5  C    0.749334
     6  O   -0.624491
     7  N   -0.783688
     8  H    0.395051
     9  C   -0.273678
    10  H    0.187187
    11  H    0.174970
    12  H    0.174945
 Sum of Mulliken charges =  -0.00000

 Dipole moment (field-independent basis, Debye):
    X=              4.0160    Y=              1.8134    Z=             -0.0001  Tot=              4.4064
 Quadrupole moment (field-independent basis, Debye-Ang):
   XX=            -34.0068   YY=            -29.4312   ZZ=            -31.1701
   XY=             -5.0965   XZ=             -0.0007   YZ=             -0.0008

 ESP charges:
               1
     1  C   -0.420607
     2  H    0.127627
     3  H    0.128202
     4  H    0.127661
     5  C    0.758694
     6  O   -0.649378
     7  N   -0.523162
     8  H    0.325393
     9  C   -0.211838
    10  H    0.138059
    11  H    0.099667
    12  H    0.099683
 Sum of ESP charges =  -0.00000

 Normal termination of Gaussian 09 at Thu Sep 13 10:58:24 2018.
