 Gaussian 09, Revision E.01,
 Gaussian 09:  EM64L-G09RevE.01 30-Nov-2015

 -------------------------------
 # opt=modredundant MP2/6-31g(d)
 -------------------------------

 -----
 Title
 -----
 Symbolic Z-matrix:
 Charge =  0 Multiplicity = 1

 SCF Done:  E(RHF) =  -246.999372734     A.U. after   13 cycles
 E2 =    -0.7264181532D+00 EUMP2 =    -0.24772579088761D+03
 Optimization completed.
    -- Stationary point found.
 SCF Done:  E(RHF) =  -246.996176682     A.U. after   12 cycles
 E2 =    -0.7269030675D+00 EUMP2 =    -0.24772307974993D+03
 SCF Done:  E(RHF) =  -246.998543485     A.U. after   12 cycles
 E2 =    -0.7266024769D+00 EUMP2 =    -0.24772514596228D+03
 SCF Done:  E(RHF) =  -246.999100337     A.U. after   12 cycles
 E2 =    -0.7263764346D+00 EUMP2 =    -0.24772547677169D+03
 SCF Done:  E(RHF) =  -246.999189040     A.U. after   12 cycles
 E2 =    -0.7264015670D+00 EUMP2 =    -0.24772559060706D+03
 SCF Done:  E(RHF) =  -246.999200235     A.U. after   10 cycles
 E2 =    -0.7263994298D+00 EUMP2 =    -0.24772559966499D+03
 SCF Done:  E(RHF) =  -246.999205978     A.U. after   11 cycles
 E2 =    -0.7264065116D+00 EUMP2 =    -0.24772561248989D+03
 SCF Done:  E(RHF) =  -246.999201305     A.U. after   10 cycles
 E2 =    -0.7264147600D+00 EUMP2 =    -0.24772561606538D+03
 SCF Done:  E(RHF) =  -246.999200773     A.U. after   10 cycles
 E2 =    -0.7264179765D+00 EUMP2 =    -0.24772561874970D+03
 SCF Done:  E(RHF) =  -246.999196753     A.U. after   11 cycles
 E2 =    -0.7264253182D+00 EUMP2 =    -0.24772562207148D+03
 E2 =    -0.7264356652D+00 EUMP2 =    -0.24772562669986D+03
 E2 =    -0.7264478777D+00 EUMP2 =    -0.24772564013812D+03
 E2 =    -0.7265440880D+00 EUMP2 =    -0.24772565931928D+03
 E2 =    -0.7264303850D+00 EUMP2 =    -0.24772564982755D+03
 E2 =    -0.7265573066D+00 EUMP2 =    -0.24768294969155D+03
 E2 =    -0.7265815588D+00 EUMP2 =    -0.24772548800717D+03
 E2 =    -0.7265478064D+00 EUMP2 =    -0.24772567227249D+03
 E2 =    -0.7264830627D+00 EUMP2 =    -0.24772568562411D+03
 E2 =    -0.7264957379D+00 EUMP2 =    -0.24772569151229D+03
 E2 =    -0.7265055902D+00 EUMP2 =    -0.24772569192484D+03
 Optimization completed.
 E2 =    -0.7264871232D+00 EUMP2 =    -0.24772492302196D+03
 E2 =    -0.7264009804D+00 EUMP2 =    -0.24772495716173D+03
 E2 =    -0.7263714950D+00 EUMP2 =    -0.24772497729290D+03
 E2 =    -0.7263449540D+00 EUMP2 =    -0.24772498604903D+03
 E2 =    -0.7263310830D+00 EUMP2 =    -0.24772498888884D+03
 E2 =    -0.7263216371D+00 EUMP2 =    -0.24772498958105D+03
 E2 =    -0.7263219062D+00 EUMP2 =    -0.24772499034438D+03
 E2 =    -0.7263208493D+00 EUMP2 =    -0.24772499037583D+03
 E2 =    -0.7266903509D+00 EUMP2 =    -0.24772171183161D+03
 E2 =    -0.7263128533D+00 EUMP2 =    -0.24772430028453D+03
 SCF Done:  E(RHF) =  -246.998246447     A.U. after   12 cycles
 E2 =    -0.7261554743D+00 EUMP2 =    -0.24772440192162D+03
 SCF Done:  E(RHF) =  -246.998218135     A.U. after   10 cycles
 E2 =    -0.7261892667D+00 EUMP2 =    -0.24772440740174D+03
 SCF Done:  E(RHF) =  -246.998217154     A.U. after   11 cycles
 E2 =    -0.7261914016D+00 EUMP2 =    -0.24772440855561D+03
 SCF Done:  E(RHF) =  -246.998221288     A.U. after    9 cycles
 E2 =    -0.7261873019D+00 EUMP2 =    -0.24772440858947D+03
    -- Stationary point found.
 SCF Done:  E(RHF) =  -246.994946896     A.U. after   13 cycles
 E2 =    -0.7265357551D+00 EUMP2 =    -0.24772148265086D+03
 SCF Done:  E(RHF) =  -246.997958080     A.U. after   13 cycles
 E2 =    -0.7261530244D+00 EUMP2 =    -0.24772411110404D+03
 SCF Done:  E(RHF) =  -246.998130619     A.U. after   12 cycles
 E2 =    -0.7260769622D+00 EUMP2 =    -0.24772420758153D+03
 SCF Done:  E(RHF) =  -246.998137551     A.U. after   12 cycles
 E2 =    -0.7260779795D+00 EUMP2 =    -0.24772421553051D+03
 SCF Done:  E(RHF) =  -246.998115701     A.U. after   11 cycles
 E2 =    -0.7261019669D+00 EUMP2 =    -0.24772421766812D+03
 SCF Done:  E(RHF) =  -246.998114397     A.U. after    9 cycles
 E2 =    -0.7261034875D+00 EUMP2 =    -0.24772421788410D+03
 Optimization completed.
    -- Stationary point found.

                         Standard orientation:
 ---------------------------------------------------------------------
 Center     Atomic      Atomic             Coordinates (Angstroms)
 Number     Number       Type             X           Y           Z
 ---------------------------------------------------------------------
      1          6           0       -0.796115    1.337496    0.001632
      2          1           0       -1.346063    1.612018   -0.901560
      3          1           0        0.128947    1.912301    0.045902
      4          1           0       -1.422609    1.598735    0.857199
      5          6           0       -0.608426   -0.166327    0.001780
      6          8           0       -1.575979   -0.930392   -0.005274
      7          7           0        0.672462   -0.647366    0.010839
      8          1           0        0.715910   -1.659390    0.001661
      9          6           0        1.914264    0.104761   -0.005085
     10          1           0        2.738001   -0.610377   -0.009594
     11          1           0        2.005616    0.729318   -0.898799
     12          1           0        2.022465    0.736510    0.881544
 ---------------------------------------------------------------------

 The electronic state is 1-A.
 Alpha  occ. eigenvalues --  -20.51154 -15.58726 -11.34996 -11.27843 -11.23474
 Alpha  occ. eigenvalues --   -1.36099  -1.22272  -1.00379  -0.95549  -0.77912
 Alpha  occ. eigenvalues --   -0.67094  -0.66261  -0.63472  -0.58598  -0.57174
 Alpha  occ. eigenvalues --   -0.55681  -0.55504  -0.50163  -0.40981  -0.38074
 Alpha virt. eigenvalues --    0.19133   0.21788   0.24769   0.27883   0.30811
 Alpha virt. eigenvalues --    0.32011   0.32618   0.33842   0.36274   0.41919
 Alpha virt. eigenvalues --    0.48883   0.59439   0.70456   0.71872   0.75393

 Mulliken charges:
               1
     1  C   -0.585050
     2  H    0.209273
     3  H    0.176306
     4  H    0.210694
     5  C    0.751474
     6  O   -0.631176
     7  N   -0.790640
     8  H    0.395025
     9  C   -0.278216
    10  H    0.187154
    11  H    0.177366
    12  H    0.177789
 Sum of Mulliken charges =  -0.00000

 Dipole moment (field-independent basis, Debye):
    X=              3.8970    Y=              1.9765    Z=             -0.0246  Tot=              4.3697
 Quadrupole moment (field-independent basis, Debye-Ang):
   XX=            -33.4511   YY=            -29.7981   ZZ=            -31.0467
   XY=             -5.4264   XZ=             -0.0605   YZ=              0.0084

 Normal termination of Gaussian 09 at Thu Sep 13 12:43:56 2018.
