 Gaussian 09, Revision E.01,
 Gaussian 09:  EM64L-G09RevE.01 30-Nov-2015

 -------------------------------
 # opt=modredundant MP2/6-31g(d)
 -------------------------------

 -----
 Title
 -----
 Symbolic Z-matrix:
 Charge =  0 Multiplicity = 1

 SCF Done:  E(RHF) =  -246.999372734     A.U. after   13 cycles
 E2 =    -0.7264181532D+00 EUMP2 =    -0.24772579088761D+03
 Optimization completed.
    -- Stationary point found.
 SCF Done:  E(RHF) =  -246.996804036     A.U. after   13 cycles
 E2 =    -0.7267137521D+00 EUMP2 =    -0.24772351778790D+03
 SCF Done:  E(RHF) =  -246.998942039     A.U. after   12 cycles
 E2 =    -0.7264792352D+00 EUMP2 =    -0.24772542127431D+03
 SCF Done:  E(RHF) =  -246.999078248     A.U. after   12 cycles
 E2 =    -0.7264810560D+00 EUMP2 =    -0.24772555930441D+03
 SCF Done:  E(RHF) =  -246.999050720     A.U. after   12 cycles
 E2 =    -0.7264782974D+00 EUMP2 =    -0.24772552901726D+03
 SCF Done:  E(RHF) =  -246.999162923     A.U. after   11 cycles
 E2 =    -0.7264666249D+00 EUMP2 =    -0.24772562954826D+03
 SCF Done:  E(RHF) =  -246.999225323     A.U. after   12 cycles
 E2 =    -0.7264767327D+00 EUMP2 =    -0.24772570205589D+03
 SCF Done:  E(RHF) =  -246.999261901     A.U. after   12 cycles
 E2 =    -0.7264742233D+00 EUMP2 =    -0.24772573612476D+03
 SCF Done:  E(RHF) =  -246.999299895     A.U. after   10 cycles
 E2 =    -0.7264744681D+00 EUMP2 =    -0.24772577436269D+03
 SCF Done:  E(RHF) =  -246.998912778     A.U. after   14 cycles
 E2 =    -0.7267254533D+00 EUMP2 =    -0.24772563823132D+03
 E2 =    -0.7265410812D+00 EUMP2 =    -0.24772582277243D+03
 E2 =    -0.7265620356D+00 EUMP2 =    -0.24772587628839D+03
 E2 =    -0.7265407633D+00 EUMP2 =    -0.24772551796710D+03
 E2 =    -0.7322007970D+00 EUMP2 =    -0.24767393251608D+03
 E2 =    -0.7310022842D+00 EUMP2 =    -0.24769102382562D+03
 E2 =    -0.7312504935D+00 EUMP2 =    -0.24769718549786D+03
 E2 =    -0.7270382019D+00 EUMP2 =    -0.24772418057526D+03
 E2 =    -0.7262891981D+00 EUMP2 =    -0.24772501914016D+03
 E2 =    -0.7284178180D+00 EUMP2 =    -0.24772473973627D+03
 E2 =    -0.7246918737D+00 EUMP2 =    -0.24772472366147D+03
 Optimization stopped.
 E2 =    -0.7264248709D+00 EUMP2 =    -0.24772575792873D+03
 E2 =    -0.7268176162D+00 EUMP2 =    -0.24772560564557D+03
 E2 =    -0.7266524968D+00 EUMP2 =    -0.24772582766668D+03
 E2 =    -0.7266074913D+00 EUMP2 =    -0.24772588916166D+03
 E2 =    -0.7266179779D+00 EUMP2 =    -0.24772590568179D+03
 E2 =    -0.7266472345D+00 EUMP2 =    -0.24772590831002D+03
 E2 =    -0.7266419283D+00 EUMP2 =    -0.24772590861527D+03
 E2 =    -0.7269105136D+00 EUMP2 =    -0.24772348399512D+03
 E2 =    -0.7267710186D+00 EUMP2 =    -0.24772553179526D+03
 E2 =    -0.7266427244D+00 EUMP2 =    -0.24772558197845D+03
 SCF Done:  E(RHF) =  -246.998958437     A.U. after    9 cycles
 E2 =    -0.7266244392D+00 EUMP2 =    -0.24772558287611D+03
 SCF Done:  E(RHF) =  -246.998958370     A.U. after    8 cycles
 E2 =    -0.7266245482D+00 EUMP2 =    -0.24772558291804D+03
 SCF Done:  E(RHF) =  -246.996286001     A.U. after   12 cycles
 E2 =    -0.7268729331D+00 EUMP2 =    -0.24772315893402D+03
 SCF Done:  E(RHF) =  -246.998677728     A.U. after   12 cycles
 E2 =    -0.7265372194D+00 EUMP2 =    -0.24772521494744D+03
 SCF Done:  E(RHF) =  -246.998617316     A.U. after   11 cycles
 E2 =    -0.7266214690D+00 EUMP2 =    -0.24772523878506D+03
 SCF Done:  E(RHF) =  -246.998629885     A.U. after    9 cycles
 E2 =    -0.7266093338D+00 EUMP2 =    -0.24772523921873D+03
    -- Stationary point found.
 SCF Done:  E(RHF) =  -246.996229552     A.U. after   12 cycles
 E2 =    -0.7268199144D+00 EUMP2 =    -0.24772304946628D+03
 SCF Done:  E(RHF) =  -246.998498626     A.U. after   12 cycles
 E2 =    -0.7265758305D+00 EUMP2 =    -0.24772507445656D+03
 SCF Done:  E(RHF) =  -246.998484712     A.U. after   11 cycles
 E2 =    -0.7266133445D+00 EUMP2 =    -0.24772509805672D+03
 SCF Done:  E(RHF) =  -246.998492376     A.U. after    9 cycles
 E2 =    -0.7266060392D+00 EUMP2 =    -0.24772509841480D+03
 Optimization completed.
    -- Stationary point found.

                         Standard orientation:
 ---------------------------------------------------------------------
 Center     Atomic      Atomic             Coordinates (Angstroms)
 Number     Number       Type             X           Y           Z
 ---------------------------------------------------------------------
      1          6           0       -0.788106    1.343904   -0.000078
      2          1           0       -0.337661    1.800185    0.886078
      3          1           0       -1.858481    1.545237   -0.000839
      4          1           0       -0.336269    1.800373   -0.885416
      5          6           0       -0.615832   -0.162035   -0.000039
      6          8           0       -1.579913   -0.930923    0.000214
      7          7           0        0.665799   -0.645464   -0.000441
      8          1           0        0.704232   -1.658745   -0.000212
      9          6           0        1.915814    0.087305    0.000175
     10          1           0        1.715270    1.157184    0.002412
     11          1           0        2.510538   -0.148466    0.888683
     12          1           0        2.509829   -0.145178   -0.889674
 ---------------------------------------------------------------------

 The electronic state is 1-A.
 Alpha  occ. eigenvalues --  -20.51439 -15.58616 -11.35118 -11.27702 -11.23647
 Alpha  occ. eigenvalues --   -1.36226  -1.22265  -1.00544  -0.95494  -0.77856
 Alpha  occ. eigenvalues --   -0.67092  -0.66360  -0.63481  -0.58733  -0.57363
 Alpha  occ. eigenvalues --   -0.55614  -0.55326  -0.50538  -0.41195  -0.37971
 Alpha virt. eigenvalues --    0.19915   0.22104   0.25341   0.27899   0.29999
 Alpha virt. eigenvalues --    0.30739   0.32830   0.32956   0.36397   0.41460
 Alpha virt. eigenvalues --    0.49058   0.56904   0.69319   0.71320   0.74262

 Mulliken charges:
               1
     1  C   -0.599663
     2  H    0.187876
     3  H    0.222034
     4  H    0.187859
     5  C    0.751617
     6  O   -0.625958
     7  N   -0.780692
     8  H    0.391199
     9  C   -0.274854
    10  H    0.184476
    11  H    0.178061
    12  H    0.178044
 Sum of Mulliken charges =  -0.00000

 Dipole moment (field-independent basis, Debye):
    X=              3.8585    Y=              2.0794    Z=              0.0011  Tot=              4.3832
 Quadrupole moment (field-independent basis, Debye-Ang):
   XX=            -33.8437   YY=            -29.7165   ZZ=            -31.1360
   XY=             -4.9626   XZ=              0.0031   YZ=              0.0004

 Normal termination of Gaussian 09 at Thu Sep 13 13:57:09 2018.
